<?xml version="1.0"?>
<VTKFile type="UnstructuredGrid" version="0.1" byte_order="LittleEndian">
  <UnstructuredGrid>
    <Piece NumberOfPoints="289" NumberOfCells="256">
      <Points>
        <DataArray type="Float32" NumberOfComponents="3" format="ascii">
1 1 0 0.9375 1 0 0.9375 0.9375 0 1 0.9375 0 0.875 1 0 0.875 0.9375 0 0.875 0.875 0 0.9375 0.875 0 1 0.875 0 0.75 1 0 0.75 0.9375 0 0.8125 0.9375 0 0.8125 1 0 0.75 0.875 0 0.8125 0.875 0 0.75 0.75 0 0.8125 0.75 0 0.8125 0.8125 0 0.75 0.8125 0 0.875 0.75 0 0.875 0.8125 0 1 0.75 0 1 0.8125 0 0.9375 0.8125 0 0.9375 0.75 0 0.5 1 0 0.5 0.9375 0 0.5625 0.9375 0 0.5625 1 0 0.5 0.875 0 0.5625 0.875 0 0.625 0.875 0 0.625 0.9375 0 0.625 1 0 0.5 0.75 0 0.5625 0.75 0 0.5625 0.8125 0 0.5 0.8125 0 0.625 0.75 0 0.625 0.8125 0 0.6875 0.8125 0 0.6875 0.75 0 0.6875 0.875 0 0.6875 1 0 0.6875 0.9375 0 0.5 0.5 0 0.5625 0.5 0 0.5625 0.5625 0 0.5 0.5625 0 0.625 0.5 0 0.625 0.5625 0 0.625 0.625 0 0.5625 0.625 0 0.5 0.625 0 0.75 0.5 0 0.75 0.5625 0 0.6875 0.5625 0 0.6875 0.5 0 0.75 0.625 0 0.6875 0.625 0 0.6875 0.6875 0 0.75 0.6875 0 0.625 0.6875 0 0.5 0.6875 0 0.5625 0.6875 0 1 0.5 0 1 0.5625 0 0.9375 0.5625 0 0.9375 0.5 0 1 0.625 0 0.9375 0.625 0 0.875 0.625 0 0.875 0.5625 0 0.875 0.5 0 0.9375 0.6875 0 1 0.6875 0 0.875 0.6875 0 0.8125 0.6875 0 0.8125 0.625 0 0.8125 0.5 0 0.8125 0.5625 0 0 1 0 0 0.9375 0 0.0625 0.9375 0 0.0625 1 0 0 0.875 0 0.0625 0.875 0 0.125 0.875 0 0.125 0.9375 0 0.125 1 0 0 0.75 0 0.0625 0.75 0 0.0625 0.8125 0 0 0.8125 0 0.125 0.75 0 0.125 0.8125 0 0.25 0.75 0 0.25 0.8125 0 0.1875 0.8125 0 0.1875 0.75 0 0.25 0.875 0 0.1875 0.875 0 0.25 1 0 0.1875 1 0 0.1875 0.9375 0 0.25 0.9375 0 0 0.5 0 0.0625 0.5 0 0.0625 0.5625 0 0 0.5625 0 0.125 0.5 0 0.125 0.5625 0 0.125 0.625 0 0.0625 0.625 0 0 0.625 0 0.25 0.5 0 0.25 0.5625 0 0.1875 0.5625 0 0.1875 0.5 0 0.25 0.625 0 0.1875 0.625 0 0.1875 0.6875 0 0.25 0.6875 0 0.125 0.6875 0 0 0.6875 0 0.0625 0.6875 0 0.4375 0.5625 0 0.4375 0.5 0 0.4375 0.625 0 0.375 0.625 0 0.375 0.5625 0 0.375 0.5 0 0.4375 0.75 0 0.4375 0.6875 0 0.375 0.75 0 0.375 0.6875 0 0.3125 0.6875 0 0.3125 0.75 0 0.3125 0.625 0 0.3125 0.5 0 0.3125 0.5625 0 0.4375 1 0 0.4375 0.9375 0 0.375 1 0 0.375 0.9375 0 0.375 0.875 0 0.4375 0.875 0 0.3125 0.9375 0 0.3125 1 0 0.3125 0.875 0 0.3125 0.8125 0 0.375 0.8125 0 0.4375 0.8125 0 0 0 0 0.0625 0 0 0.0625 0.0625 0 0 0.0625 0 0.125 0 0 0.125 0.0625 0 0.125 0.125 0 0.0625 0.125 0 0 0.125 0 0.25 0 0 0.25 0.0625 0 0.1875 0.0625 0 0.1875 0 0 0.25 0.125 0 0.1875 0.125 0 0.25 0.25 0 0.1875 0.25 0 0.1875 0.1875 0 0.25 0.1875 0 0.125 0.25 0 0.125 0.1875 0 0 0.25 0 0 0.1875 0 0.0625 0.1875 0 0.0625 0.25 0 0.5 0 0 0.5 0.0625 0 0.4375 0.0625 0 0.4375 0 0 0.5 0.125 0 0.4375 0.125 0 0.375 0.125 0 0.375 0.0625 0 0.375 0 0 0.5 0.25 0 0.4375 0.25 0 0.4375 0.1875 0 0.5 0.1875 0 0.375 0.25 0 0.375 0.1875 0 0.3125 0.1875 0 0.3125 0.25 0 0.3125 0.125 0 0.3125 0 0 0.3125 0.0625 0 0.4375 0.4375 0 0.5 0.4375 0 0.375 0.4375 0 0.375 0.375 0 0.4375 0.375 0 0.5 0.375 0 0.25 0.4375 0 0.3125 0.4375 0 0.25 0.375 0 0.3125 0.375 0 0.3125 0.3125 0 0.25 0.3125 0 0.375 0.3125 0 0.5 0.3125 0 0.4375 0.3125 0 0 0.4375 0 0.0625 0.4375 0 0 0.375 0 0.0625 0.375 0 0.125 0.375 0 0.125 0.4375 0 0.0625 0.3125 0 0 0.3125 0 0.125 0.3125 0 0.1875 0.3125 0 0.1875 0.375 0 0.1875 0.4375 0 1 0 0 1 0.0625 0 0.9375 0.0625 0 0.9375 0 0 1 0.125 0 0.9375 0.125 0 0.875 0.125 0 0.875 0.0625 0 0.875 0 0 1 0.25 0 0.9375 0.25 0 0.9375 0.1875 0 1 0.1875 0 0.875 0.25 0 0.875 0.1875 0 0.75 0.25 0 0.75 0.1875 0 0.8125 0.1875 0 0.8125 0.25 0 0.75 0.125 0 0.8125 0.125 0 0.75 0 0 0.8125 0 0 0.8125 0.0625 0 0.75 0.0625 0 0.9375 0.4375 0 1 0.4375 0 0.875 0.4375 0 0.875 0.375 0 0.9375 0.375 0 1 0.375 0 0.75 0.4375 0 0.8125 0.4375 0 0.75 0.375 0 0.8125 0.375 0 0.8125 0.3125 0 0.75 0.3125 0 0.875 0.3125 0 1 0.3125 0 0.9375 0.3125 0 0.5625 0.4375 0 0.5625 0.375 0 0.625 0.375 0 0.625 0.4375 0 0.5625 0.25 0 0.5625 0.3125 0 0.625 0.25 0 0.625 0.3125 0 0.6875 0.3125 0 0.6875 0.25 0 0.6875 0.375 0 0.6875 0.4375 0 0.5625 0 0 0.5625 0.0625 0 0.625 0 0 0.625 0.0625 0 0.625 0.125 0 0.5625 0.125 0 0.6875 0.0625 0 0.6875 0 0 0.6875 0.125 0 0.6875 0.1875 0 0.625 0.1875 0 0.5625 0.1875 0 
        </DataArray>
      </Points>
      <Cells>
        <DataArray type="Int32" Name="connectivity" format="ascii">
0 1 2 3 4 5 2 1 6 7 2 5 8 3 2 7 9 10 11 12 13 14 11 10 6 5 11 14 4 12 11 5 15 16 17 18 19 20 17 16 6 14 17 20 13 18 17 14 21 22 23 24 8 7 23 22 6 20 23 7 19 24 23 20 25 26 27 28 29 30 27 26 31 32 27 30 33 28 27 32 34 35 36 37 38 39 36 35 31 30 36 39 29 37 36 30 15 18 40 41 13 42 40 18 31 39 40 42 38 41 40 39 9 43 44 10 33 32 44 43 31 42 44 32 13 10 44 42 45 46 47 48 49 50 47 46 51 52 47 50 53 48 47 52 54 55 56 57 58 59 56 55 51 50 56 59 49 57 56 50 15 41 60 61 38 62 60 41 51 59 60 62 58 61 60 59 34 63 64 35 53 52 64 63 51 62 64 52 38 35 64 62 65 66 67 68 69 70 67 66 71 72 67 70 73 68 67 72 21 24 74 75 19 76 74 24 71 70 74 76 69 75 74 70 15 61 77 16 58 78 77 61 71 76 77 78 19 16 77 76 54 79 80 55 73 72 80 79 71 78 80 72 58 55 80 78 81 82 83 84 85 86 83 82 87 88 83 86 89 84 83 88 90 91 92 93 94 95 92 91 87 86 92 95 85 93 92 86 96 97 98 99 100 101 98 97 87 95 98 101 94 99 98 95 102 103 104 105 89 88 104 103 87 101 104 88 100 105 104 101 106 107 108 109 110 111 108 107 112 113 108 111 114 109 108 113 115 116 117 118 119 120 117 116 112 111 117 120 110 118 117 111 96 99 121 122 94 123 121 99 112 120 121 123 119 122 121 120 90 124 125 91 114 113 125 124 112 123 125 113 94 91 125 123 45 48 126 127 53 128 126 48 129 130 126 128 131 127 126 130 34 132 133 63 134 135 133 132 129 128 133 135 53 63 133 128 96 122 136 137 119 138 136 122 129 135 136 138 134 137 136 135 115 139 140 116 131 130 140 139 129 138 140 130 119 116 140 138 25 141 142 26 143 144 142 141 145 146 142 144 29 26 142 146 102 105 147 148 100 149 147 105 145 144 147 149 143 148 147 144 96 137 150 97 134 151 150 137 145 149 150 151 100 97 150 149 34 37 152 132 29 146 152 37 145 151 152 146 134 132 152 151 153 154 155 156 157 158 155 154 159 160 155 158 161 156 155 160 162 163 164 165 166 167 164 163 159 158 164 167 157 165 164 158 168 169 170 171 172 173 170 169 159 167 170 173 166 171 170 167 174 175 176 177 161 160 176 175 159 173 176 160 172 177 176 173 178 179 180 181 182 183 180 179 184 185 180 183 186 181 180 185 187 188 189 190 191 192 189 188 184 183 189 192 182 190 189 183 168 171 193 194 166 195 193 171 184 192 193 195 191 194 193 192 162 196 197 163 186 185 197 196 184 195 197 185 166 163 197 195 45 127 198 199 131 200 198 127 201 202 198 200 203 199 198 202 115 204 205 139 206 207 205 204 201 200 205 207 131 139 205 200 168 194 208 209 191 210 208 194 201 207 208 210 206 209 208 207 187 211 212 188 203 202 212 211 201 210 212 202 191 188 212 210 106 213 214 107 215 216 214 213 217 218 214 216 110 107 214 218 174 177 219 220 172 221 219 177 217 216 219 221 215 220 219 216 168 209 222 169 206 223 222 209 217 221 222 223 172 169 222 221 115 118 224 204 110 218 224 118 217 223 224 218 206 204 224 223 225 226 227 228 229 230 227 226 231 232 227 230 233 228 227 232 234 235 236 237 238 239 236 235 231 230 236 239 229 237 236 230 240 241 242 243 244 245 242 241 231 239 242 245 238 243 242 239 246 247 248 249 233 232 248 247 231 245 248 232 244 249 248 245 65 68 250 251 73 252 250 68 253 254 250 252 255 251 250 254 54 256 257 79 258 259 257 256 253 252 257 259 73 79 257 252 240 243 260 261 238 262 260 243 253 259 260 262 258 261 260 259 234 263 264 235 255 254 264 263 253 262 264 254 238 235 264 262 45 199 265 46 203 266 265 199 267 268 265 266 49 46 265 268 187 269 270 211 271 272 270 269 267 266 270 272 203 211 270 266 240 261 273 274 258 275 273 261 267 272 273 275 271 274 273 272 54 57 276 256 49 268 276 57 267 275 276 268 258 256 276 275 178 277 278 179 279 280 278 277 281 282 278 280 182 179 278 282 246 249 283 284 244 285 283 249 281 280 283 285 279 284 283 280 240 274 286 241 271 287 286 274 281 285 286 287 244 241 286 285 187 190 288 269 182 282 288 190 281 287 288 282 271 269 288 287 
        </DataArray>
        <DataArray type="Int32" Name="offsets" format="ascii">
4 8 12 16 20 24 28 32 36 40 44 48 52 56 60 64 68 72 76 80 84 88 92 96 100 104 108 112 116 120 124 128 132 136 140 144 148 152 156 160 164 168 172 176 180 184 188 192 196 200 204 208 212 216 220 224 228 232 236 240 244 248 252 256 260 264 268 272 276 280 284 288 292 296 300 304 308 312 316 320 324 328 332 336 340 344 348 352 356 360 364 368 372 376 380 384 388 392 396 400 404 408 412 416 420 424 428 432 436 440 444 448 452 456 460 464 468 472 476 480 484 488 492 496 500 504 508 512 516 520 524 528 532 536 540 544 548 552 556 560 564 568 572 576 580 584 588 592 596 600 604 608 612 616 620 624 628 632 636 640 644 648 652 656 660 664 668 672 676 680 684 688 692 696 700 704 708 712 716 720 724 728 732 736 740 744 748 752 756 760 764 768 772 776 780 784 788 792 796 800 804 808 812 816 820 824 828 832 836 840 844 848 852 856 860 864 868 872 876 880 884 888 892 896 900 904 908 912 916 920 924 928 932 936 940 944 948 952 956 960 964 968 972 976 980 984 988 992 996 1000 1004 1008 1012 1016 1020 1024 
        </DataArray>
        <DataArray type="Int8" Name="types" format="ascii">
9 9 9 9 9 9 9 9 9 9 9 9 9 9 9 9 9 9 9 9 9 9 9 9 9 9 9 9 9 9 9 9 9 9 9 9 9 9 9 9 9 9 9 9 9 9 9 9 9 9 9 9 9 9 9 9 9 9 9 9 9 9 9 9 9 9 9 9 9 9 9 9 9 9 9 9 9 9 9 9 9 9 9 9 9 9 9 9 9 9 9 9 9 9 9 9 9 9 9 9 9 9 9 9 9 9 9 9 9 9 9 9 9 9 9 9 9 9 9 9 9 9 9 9 9 9 9 9 9 9 9 9 9 9 9 9 9 9 9 9 9 9 9 9 9 9 9 9 9 9 9 9 9 9 9 9 9 9 9 9 9 9 9 9 9 9 9 9 9 9 9 9 9 9 9 9 9 9 9 9 9 9 9 9 9 9 9 9 9 9 9 9 9 9 9 9 9 9 9 9 9 9 9 9 9 9 9 9 9 9 9 9 9 9 9 9 9 9 9 9 9 9 9 9 9 9 9 9 9 9 9 9 9 9 9 9 9 9 9 9 9 9 9 9 9 9 9 9 9 9 9 9 9 9 9 9 
        </DataArray>
      </Cells>
      <PointData>
        <DataArray type="Float32" Name="c" NumberOfComponents="1" format="ascii">
1 1 1.00006 1 1 1.00011 1.00018 1.00011 1 1 1.00016 1.00014 1 1.00028 1.00024 1.00045 1.00038 1.00032 1.00038 1.00028 1.00024 1 1 1.00014 1.00016 1 1.00019 1.00019 1 1.00035 1.00035 1.00033 1.00018 1 1.00057 1.00057 1.00047 1.00048 1.00055 1.00045 1.00042 1.00051 1.00031 1 1.00017 1.00074 1.00073 1.00072 1.00073 1.0007 1.00069 1.00066 1.00069 1.0007 1.00057 1.00057 1.00064 1.00065 1.00055 1.00061 1.00057 1.00051 1.00061 1.00065 1.00064 1 1 1.00019 1.00019 1 1.00018 1.00033 1.00035 1.00035 1.00017 1 1.00031 1.00042 1.00045 1.00048 1.00047 1 1 1.00006 1 1 1.00011 1.00018 1.00011 1 1 1.00016 1.00014 1 1.00028 1.00024 1.00045 1.00038 1.00032 1.00038 1.00028 1.00024 1 1 1.00014 1.00016 1 1.00019 1.00019 1 1.00035 1.00035 1.00033 1.00018 1 1.00057 1.00057 1.00047 1.00048 1.00055 1.00045 1.00042 1.00051 1.00031 1 1.00017 1.00072 1.00073 1.00069 1.00066 1.00069 1.0007 1.00057 1.00064 1.00055 1.00061 1.00057 1.00051 1.00061 1.00065 1.00064 1 1.00019 1 1.00018 1.00033 1.00035 1.00017 1 1.00031 1.00042 1.00045 1.00047 1 1 1.00006 1 1 1.00011 1.00018 1.00011 1 1 1.00016 1.00014 1 1.00028 1.00024 1.00045 1.00038 1.00032 1.00038 1.00028 1.00024 1 1 1.00014 1.00016 1 1.00019 1.00019 1 1.00035 1.00035 1.00033 1.00018 1 1.00057 1.00057 1.00047 1.00048 1.00055 1.00045 1.00042 1.00051 1.00031 1 1.00017 1.00072 1.00073 1.00069 1.00066 1.00069 1.0007 1.00057 1.00064 1.00055 1.00061 1.00057 1.00051 1.00061 1.00065 1.00064 1 1.00019 1 1.00018 1.00033 1.00035 1.00017 1 1.00031 1.00042 1.00045 1.00047 1 1 1.00006 1 1 1.00011 1.00018 1.00011 1 1 1.00016 1.00014 1 1.00028 1.00024 1.00045 1.00038 1.00032 1.00038 1.00028 1.00024 1 1 1.00014 1.00016 1.00019 1 1.00035 1.00033 1.00018 1 1.00057 1.00047 1.00055 1.00045 1.00042 1.00051 1.00031 1 1.00017 1.00072 1.00069 1.00066 1.00069 1.00057 1.00064 1.00055 1.00061 1.00057 1.00051 1.00061 1.00064 1 1.00019 1 1.00018 1.00033 1.00035 1.00017 1 1.00031 1.00042 1.00045 1.00047 
        </DataArray>
      </PointData>
    </Piece>
  </UnstructuredGrid>
</VTKFile>
